                         Program Version 5.0.3 -  RELEASE  -
|  1> ! RI-MP2 6-311G(d) autoaux nofrozencore tightscf engrad
|  2> %pal nprocs 1 end
|  3> *xyz -1 1
|  4> C   0.09637425398324018 -0.07231111935583726 0.056285825603134165
|  5> C   1.601019966194606 0.12753406808829704 0.037575873444207535
|  6> H   2.1018025768870108 -0.6847570999838415 0.5615999748380814
|  7> F   -0.5353520564437777 1.1943549279390664 0.12070874684759554
|  8> Cl   0.7968941161456123 -3.165648934239845 -0.4182175070254893
|  9> H   -0.26846406896536124 -0.5768046758194606 -0.8331890768360785
| 10> H   -0.22654479722352217 -0.6423308389091418 0.9256085580211864
| 11> H   1.823758566826155 1.0799514323540833 0.5267760153174963
| 12> H   1.9964029525960365 0.14927782992668037 -0.9797359602101336
| 13> *
| 14>
| 15>                          ****END OF INPUT****

CARTESIAN COORDINATES (ANGSTROEM)
---------------------------------
  C      0.096374   -0.072311    0.056286
  C      1.601020    0.127534    0.037576
  H      2.101803   -0.684757    0.561600
  F     -0.535352    1.194355    0.120709
  Cl     0.796894   -3.165649   -0.418218
  H     -0.268464   -0.576805   -0.833189
  H     -0.226545   -0.642331    0.925609
  H      1.823759    1.079951    0.526776
  H      1.996403    0.149278   -0.979736

 Total Charge           Charge          ....   -1
 Multiplicity           Mult            ....    1
 Number of Electrons    NEL             ....   44
 Basis Dimension        Dim             ....   95

ORBITAL ENERGIES
----------------

  NO   OCC          E(Eh)            E(eV)
   0   2.0000    -104.512972     -2843.9426
   1   2.0000     -26.115440      -710.6373
   2   2.0000     -11.150480      -303.4200
   3   2.0000     -11.078761      -301.4684
   4   2.0000     -10.238674      -278.6085
   5   2.0000      -7.705566      -209.6791
   6   2.0000      -7.705536      -209.6783
   7   2.0000      -7.705517      -209.6778
   8   2.0000      -1.426963       -38.8296
   9   2.0000      -0.881619       -23.9901
  10   2.0000      -0.749009       -20.3816
  11   2.0000      -0.712868       -19.3981
  12   2.0000      -0.547897       -14.9090
  13   2.0000      -0.539633       -14.6842
  14   2.0000      -0.498744       -13.5715
  15   2.0000      -0.434246       -11.8164
  16   2.0000      -0.403340       -10.9754
  17   2.0000      -0.361696        -9.8423
  18   2.0000      -0.344544        -9.3755
  19   2.0000      -0.166442        -4.5291
  20   2.0000      -0.165198        -4.4953
  21   2.0000      -0.164990        -4.4896
  22   0.0000       0.305154         8.3037
  23   0.0000       0.335175         9.1206
  24   0.0000       0.345574         9.4035
  25   0.0000       0.378319        10.2946
  26   0.0000       0.410170        11.1613

MULLIKEN ATOMIC CHARGES
-----------------------
   0 C :   -0.077648
   1 C :   -0.682831
   2 H :    0.256465
   3 F :   -0.353689
   4 Cl:   -0.958042
   5 H :    0.231212
   6 H :    0.204818
   7 H :    0.176316
   8 H :    0.203399
Sum of atomic charges:   -1.0000000

LOEWDIN ATOMIC CHARGES
----------------------
   0 C :   -0.106778
   1 C :   -0.345719
   2 H :    0.128777
   3 F :   -0.152787
   4 Cl:   -0.925603
   5 H :    0.104508
   6 H :    0.097261
   7 H :    0.092477
   8 H :    0.107864

  Mayer bond orders larger than 0.100000
B(  0-C ,  1-C ) :   0.9194 B(  0-C ,  3-F ) :   0.7933 B(  0-C ,  5-H ) :   0.8945
B(  0-C ,  6-H ) :   0.9070 B(  1-C ,  2-H ) :   0.8851 B(  1-C ,  7-H ) :   0.9074
B(  1-C ,  8-H ) :   0.9153

MP2 TOTAL ENERGY:     -638.416722565 Eh
FINAL SINGLE POINT ENERGY      -638.416722564992

DIPOLE MOMENT
-------------
                                X             Y             Z
Electronic contribution:     -3.35098      -2.34308      -0.53338
Nuclear contribution   :      3.24348       5.10686       0.96307
                        -----------------------------------------
Total Dipole Moment    :     -0.10749       2.76378       0.42969
                        -----------------------------------------
Magnitude (a.u.)       :      2.79905
Magnitude (Debye)      :      7.11461

Rotational constants in cm-1:     0.414882     0.054832     0.049340
Rotational constants in MHz : 12437.861338  1643.808618  1479.162533

                             ****ORCA TERMINATED NORMALLY****
TOTAL RUN TIME: 0 days 0 hours 0 minutes 11 seconds 310 msec
