                         Program Version 5.0.3 -  RELEASE  -
|  1> ! RI-MP2 6-311G(d) autoaux nofrozencore tightscf engrad
|  2> %pal nprocs 1 end
|  3> *xyz -1 1
|  4> C   0.3244952245521441 -0.7416264964734884 -0.04452112135265506
|  5> C   1.6537516740272333 -0.03212759532996279 0.01805181461615582
|  6> H   2.328971905483995 -0.5471703163953402 0.7064067148207218
|  7> F   -0.590087830520371 1.4425334149989728 0.2745760449781692
|  8> Cl   0.6585723024244929 -2.5724742529509115 -0.36305243143608973
|  9> H   -0.3093018615054919 -0.4099169915826187 -0.8524150845824157
| 10> H   -0.2294428487554656 -0.6998278356647016 0.8817270888591974
| 11> H   1.42610086482583 0.9817632762883315 0.34572652021633327
| 12> H   2.1228320794676305 -0.011887612890280286 -0.9690870961194175
| 13> *
| 14>
| 15>                          ****END OF INPUT****

CARTESIAN COORDINATES (ANGSTROEM)
---------------------------------
  C      0.324495   -0.741626   -0.044521
  C      1.653752   -0.032128    0.018052
  H      2.328972   -0.547170    0.706407
  F     -0.590088    1.442533    0.274576
  Cl     0.658572   -2.572474   -0.363052
  H     -0.309302   -0.409917   -0.852415
  H     -0.229443   -0.699828    0.881727
  H      1.426101    0.981763    0.345727
  H      2.122832   -0.011888   -0.969087

 Total Charge           Charge          ....   -1
 Multiplicity           Mult            ....    1
 Number of Electrons    NEL             ....   44
 Basis Dimension        Dim             ....   95

ORBITAL ENERGIES
----------------

  NO   OCC          E(Eh)            E(eV)
   0   2.0000    -104.650360     -2847.6811
   1   2.0000     -25.816545      -702.5039
   2   2.0000     -11.118858      -302.5595
   3   2.0000     -11.054728      -300.8144
   4   2.0000     -10.377228      -282.3787
   5   2.0000      -7.845114      -213.4764
   6   2.0000      -7.843086      -213.4212
   7   2.0000      -7.843065      -213.4207
   8   2.0000      -1.093549       -29.7570
   9   2.0000      -0.950330       -25.8598
  10   2.0000      -0.828247       -22.5377
  11   2.0000      -0.665771       -18.1165
  12   2.0000      -0.472312       -12.8523
  13   2.0000      -0.430107       -11.7038
  14   2.0000      -0.386572       -10.5192
  15   2.0000      -0.354891        -9.6571
  16   2.0000      -0.326293        -8.8789
  17   2.0000      -0.274195        -7.4612
  18   2.0000      -0.272948        -7.4273
  19   2.0000      -0.198717        -5.4074
  20   2.0000      -0.194962        -5.3052
  21   2.0000      -0.192495        -5.2381
  22   0.0000       0.317883         8.6500
  23   0.0000       0.343896         9.3579
  24   0.0000       0.357393         9.7252
  25   0.0000       0.365827         9.9547
  26   0.0000       0.411473        11.1967

MULLIKEN ATOMIC CHARGES
-----------------------
   0 C :   -0.393683
   1 C :   -0.641373
   2 H :    0.167167
   3 F :   -0.787815
   4 Cl:   -0.313833
   5 H :    0.265305
   6 H :    0.252070
   7 H :    0.281624
   8 H :    0.170538
Sum of atomic charges:   -1.0000000

LOEWDIN ATOMIC CHARGES
----------------------
   0 C :   -0.253387
   1 C :   -0.361432
   2 H :    0.083692
   3 F :   -0.781880
   4 Cl:   -0.153025
   5 H :    0.119536
   6 H :    0.115588
   7 H :    0.140598
   8 H :    0.090309

  Mayer bond orders larger than 0.100000
B(  0-C ,  1-C ) :   0.9074 B(  0-C ,  4-Cl) :   0.7407 B(  0-C ,  5-H ) :   0.8596
B(  0-C ,  6-H ) :   0.8708 B(  1-C ,  2-H ) :   0.9120 B(  1-C ,  7-H ) :   0.8277
B(  1-C ,  8-H ) :   0.9202 B(  3-F ,  7-H ) :   0.1205

MP2 TOTAL ENERGY:     -638.355608940 Eh
FINAL SINGLE POINT ENERGY      -638.355608940497

DIPOLE MOMENT
-------------
                                X             Y             Z
Electronic contribution:     -2.28854      -5.65397      -0.87451
Nuclear contribution   :      3.47461       3.61161       0.56625
                        -----------------------------------------
Total Dipole Moment    :      1.18607      -2.04237      -0.30826
                        -----------------------------------------
Magnitude (a.u.)       :      2.38181
Magnitude (Debye)      :      6.05409

Rotational constants in cm-1:     0.412796     0.071365     0.062261
Rotational constants in MHz : 12375.321831  2139.475217  1866.539196

                             ****ORCA TERMINATED NORMALLY****
TOTAL RUN TIME: 0 days 0 hours 0 minutes 13 seconds 65 msec
