                         Program Version 5.0.3 -  RELEASE  -
|  1> ! RI-MP2 6-311G(d) autoaux nofrozencore tightscf engrad
|  2> %pal nprocs 1 end
|  3> *xyz -1 1
|  4> C   0.09809351300585101 -0.02991333255481149 0.033247679452674414
|  5> C   1.5914151669115932 0.15721272169966055 0.022050589233574728
|  6> H   2.0502175631400528 -0.8256209633934743 0.1292968113493928
|  7> F   -0.5417961498120973 1.225040958597604 -0.08162771882199406
|  8> Cl   0.8416215630280417 -3.388981425365315 -0.19392360245613943
|  9> H   -0.23152089204233772 -0.6555741983939966 -0.7921119880664794
| 10> H   -0.240918265641358 -0.4857854891913551 0.9624747329992963
| 11> H   1.9039225001335953 0.8113868087378617 0.8398757122503455
| 12> H   1.9148565112766598 0.6015005098638271 -0.9218697659406709
| 13> *
| 14>
| 15>                          ****END OF INPUT****

CARTESIAN COORDINATES (ANGSTROEM)
---------------------------------
  C      0.098094   -0.029913    0.033248
  C      1.591415    0.157213    0.022051
  H      2.050218   -0.825621    0.129297
  F     -0.541796    1.225041   -0.081628
  Cl     0.841622   -3.388981   -0.193924
  H     -0.231521   -0.655574   -0.792112
  H     -0.240918   -0.485785    0.962475
  H      1.903923    0.811387    0.839876
  H      1.914857    0.601501   -0.921870

 Total Charge           Charge          ....   -1
 Multiplicity           Mult            ....    1
 Number of Electrons    NEL             ....   44
 Basis Dimension        Dim             ....   95

ORBITAL ENERGIES
----------------

  NO   OCC          E(Eh)            E(eV)
   0   2.0000    -104.514103     -2843.9733
   1   2.0000     -26.123641      -710.8604
   2   2.0000     -11.157857      -303.6207
   3   2.0000     -11.083440      -301.5957
   4   2.0000     -10.239591      -278.6334
   5   2.0000      -7.706482      -209.7040
   6   2.0000      -7.706449      -209.7031
   7   2.0000      -7.706441      -209.7029
   8   2.0000      -1.435111       -39.0514
   9   2.0000      -0.892592       -24.2887
  10   2.0000      -0.748658       -20.3720
  11   2.0000      -0.717823       -19.5330
  12   2.0000      -0.556871       -15.1532
  13   2.0000      -0.546550       -14.8724
  14   2.0000      -0.508325       -13.8322
  15   2.0000      -0.442235       -12.0338
  16   2.0000      -0.407589       -11.0911
  17   2.0000      -0.368296       -10.0218
  18   2.0000      -0.354454        -9.6452
  19   2.0000      -0.166543        -4.5319
  20   2.0000      -0.165241        -4.4964
  21   2.0000      -0.165174        -4.4946
  22   0.0000       0.295988         8.0542
  23   0.0000       0.330281         8.9874
  24   0.0000       0.338554         9.2125
  25   0.0000       0.391755        10.6602
  26   0.0000       0.404168        10.9980

MULLIKEN ATOMIC CHARGES
-----------------------
   0 C :   -0.075610
   1 C :   -0.693950
   2 H :    0.287693
   3 F :   -0.343727
   4 Cl:   -0.960700
   5 H :    0.229062
   6 H :    0.197330
   7 H :    0.175631
   8 H :    0.184272
Sum of atomic charges:   -1.0000000

LOEWDIN ATOMIC CHARGES
----------------------
   0 C :   -0.103629
   1 C :   -0.349811
   2 H :    0.142043
   3 F :   -0.146185
   4 Cl:   -0.940137
   5 H :    0.107085
   6 H :    0.097302
   7 H :    0.093735
   8 H :    0.099598

  Mayer bond orders larger than 0.100000
B(  0-C ,  1-C ) :   0.9420 B(  0-C ,  3-F ) :   0.8043 B(  0-C ,  5-H ) :   0.8895
B(  0-C ,  6-H ) :   0.9027 B(  1-C ,  2-H ) :   0.8555 B(  1-C ,  7-H ) :   0.9132
B(  1-C ,  8-H ) :   0.9133

MP2 TOTAL ENERGY:     -638.421281151 Eh
FINAL SINGLE POINT ENERGY      -638.421281151065

DIPOLE MOMENT
-------------
                                X             Y             Z
Electronic contribution:     -3.28282      -2.65050      -0.53997
Nuclear contribution   :      3.12210       5.67541       0.75888
                        -----------------------------------------
Total Dipole Moment    :     -0.16072       3.02491       0.21891
                        -----------------------------------------
Magnitude (a.u.)       :      3.03708
Magnitude (Debye)      :      7.71964

Rotational constants in cm-1:     0.416223     0.049089     0.044687
Rotational constants in MHz : 12478.054580  1471.653150  1339.671092

                             ****ORCA TERMINATED NORMALLY****
TOTAL RUN TIME: 0 days 0 hours 0 minutes 11 seconds 216 msec
