                         Program Version 5.0.3 -  RELEASE  -
|  1> ! RI-MP2 6-311G(d) autoaux nofrozencore tightscf engrad
|  2> %pal nprocs 1 end
|  3> *xyz -1 1
|  4> C   0.09670477677356482 -0.03587772800721156 0.05903777666320976
|  5> C   1.5909772091130385 0.14945518734182778 0.038287876445345655
|  6> H   2.0558269369278674 -0.804740121009663 0.2835440423296499
|  7> F   -0.5404178197657767 1.2160753107914277 -0.09560163699122057
|  8> Cl   0.8428765796498557 -3.3382561732733333 -0.3582112951818888
|  9> H   -0.23661606553822456 -0.6899880786251796 -0.7412231693459727
| 10> H   -0.2406430657027845 -0.455636389124739 1.006395624724474
| 11> H   1.8870671888031698 0.915806108885693 0.7593925191680546
| 12> H   1.93011576973929 0.45242747302117875 -0.9542092878116522
| 13> *
| 14>
| 15>                          ****END OF INPUT****

CARTESIAN COORDINATES (ANGSTROEM)
---------------------------------
  C      0.096705   -0.035878    0.059038
  C      1.590977    0.149455    0.038288
  H      2.055827   -0.804740    0.283544
  F     -0.540418    1.216075   -0.095602
  Cl     0.842877   -3.338256   -0.358211
  H     -0.236616   -0.689988   -0.741223
  H     -0.240643   -0.455636    1.006396
  H      1.887067    0.915806    0.759393
  H      1.930116    0.452427   -0.954209

 Total Charge           Charge          ....   -1
 Multiplicity           Mult            ....    1
 Number of Electrons    NEL             ....   44
 Basis Dimension        Dim             ....   95

ORBITAL ENERGIES
----------------

  NO   OCC          E(Eh)            E(eV)
   0   2.0000    -104.513851     -2843.9665
   1   2.0000     -26.122476      -710.8287
   2   2.0000     -11.156304      -303.5785
   3   2.0000     -11.082588      -301.5726
   4   2.0000     -10.239382      -278.6277
   5   2.0000      -7.706271      -209.6983
   6   2.0000      -7.706242      -209.6975
   7   2.0000      -7.706228      -209.6971
   8   2.0000      -1.434041       -39.0222
   9   2.0000      -0.891153       -24.2495
  10   2.0000      -0.748690       -20.3729
  11   2.0000      -0.716934       -19.5088
  12   2.0000      -0.555661       -15.1203
  13   2.0000      -0.545546       -14.8451
  14   2.0000      -0.507096       -13.7988
  15   2.0000      -0.440849       -11.9961
  16   2.0000      -0.407036       -11.0760
  17   2.0000      -0.367319        -9.9953
  18   2.0000      -0.352914        -9.6033
  19   2.0000      -0.166387        -4.5276
  20   2.0000      -0.165207        -4.4955
  21   2.0000      -0.165095        -4.4925
  22   0.0000       0.297554         8.0969
  23   0.0000       0.330971         9.0062
  24   0.0000       0.338916         9.2224
  25   0.0000       0.391888        10.6638
  26   0.0000       0.402834        10.9617

MULLIKEN ATOMIC CHARGES
-----------------------
   0 C :   -0.077656
   1 C :   -0.687202
   2 H :    0.279341
   3 F :   -0.344370
   4 Cl:   -0.960573
   5 H :    0.239018
   6 H :    0.188314
   7 H :    0.173109
   8 H :    0.190019
Sum of atomic charges:   -1.0000000

LOEWDIN ATOMIC CHARGES
----------------------
   0 C :   -0.105159
   1 C :   -0.347904
   2 H :    0.139479
   3 F :   -0.146267
   4 Cl:   -0.937933
   5 H :    0.109242
   6 H :    0.093842
   7 H :    0.091881
   8 H :    0.102820

  Mayer bond orders larger than 0.100000
B(  0-C ,  1-C ) :   0.9409 B(  0-C ,  3-F ) :   0.8032 B(  0-C ,  5-H ) :   0.8843
B(  0-C ,  6-H ) :   0.9064 B(  1-C ,  2-H ) :   0.8624 B(  1-C ,  7-H ) :   0.9116
B(  1-C ,  8-H ) :   0.9137

MP2 TOTAL ENERGY:     -638.420698304 Eh
FINAL SINGLE POINT ENERGY      -638.420698303808

DIPOLE MOMENT
-------------
                                X             Y             Z
Electronic contribution:     -3.27795      -2.57791      -0.88024
Nuclear contribution   :      3.11699       5.54771       1.27815
                        -----------------------------------------
Total Dipole Moment    :     -0.16096       2.96980       0.39791
                        -----------------------------------------
Magnitude (a.u.)       :      3.00065
Magnitude (Debye)      :      7.62706

Rotational constants in cm-1:     0.413031     0.050162     0.045600
Rotational constants in MHz : 12382.360259  1503.824773  1367.065102

                             ****ORCA TERMINATED NORMALLY****
TOTAL RUN TIME: 0 days 0 hours 0 minutes 11 seconds 447 msec
