                         Program Version 5.0.3 -  RELEASE  -
|  1> ! RI-MP2 6-311G(d) autoaux nofrozencore tightscf engrad
|  2> %pal nprocs 1 end
|  3> *xyz -1 1
|  4> C   0.26306285008047037 -0.5734128095596528 -0.017258052821529066
|  5> C   1.648633824282524 0.00234326873295998 0.02400868492482585
|  6> H   2.295584080287138 -0.5666517919074812 0.6935174266583659
|  7> F   -0.5408494777367476 1.312809515646528 0.25315353574797056
|  8> Cl   0.6876389438561246 -2.6224278673234163 -0.365768530302287
|  9> H   -0.33610881356729005 -0.44031623923167673 -0.8943585817097717
| 10> H   -0.26000269283930066 -0.7199713128677848 0.9071485632996256
| 11> H   1.5279684067100519 1.025967481530036 0.36656752241277696
| 12> H   2.0999643889270274 -0.009074655019511269 -0.9695981182099774
| 13> *
| 14>
| 15>                          ****END OF INPUT****

CARTESIAN COORDINATES (ANGSTROEM)
---------------------------------
  C      0.263063   -0.573413   -0.017258
  C      1.648634    0.002343    0.024009
  H      2.295584   -0.566652    0.693517
  F     -0.540849    1.312810    0.253154
  Cl     0.687639   -2.622428   -0.365769
  H     -0.336109   -0.440316   -0.894359
  H     -0.260003   -0.719971    0.907149
  H      1.527968    1.025967    0.366568
  H      2.099964   -0.009075   -0.969598

 Total Charge           Charge          ....   -1
 Multiplicity           Mult            ....    1
 Number of Electrons    NEL             ....   44
 Basis Dimension        Dim             ....   95

ORBITAL ENERGIES
----------------

  NO   OCC          E(Eh)            E(eV)
   0   2.0000    -104.599564     -2846.2988
   1   2.0000     -25.867213      -703.8826
   2   2.0000     -11.145943      -303.2965
   3   2.0000     -11.065611      -301.1106
   4   2.0000     -10.326270      -280.9921
   5   2.0000      -7.793737      -212.0784
   6   2.0000      -7.792424      -212.0427
   7   2.0000      -7.792417      -212.0424
   8   2.0000      -1.147049       -31.2128
   9   2.0000      -0.904217       -24.6050
  10   2.0000      -0.821223       -22.3466
  11   2.0000      -0.677737       -18.4422
  12   2.0000      -0.488187       -13.2842
  13   2.0000      -0.427045       -11.6205
  14   2.0000      -0.402531       -10.9534
  15   2.0000      -0.366971        -9.9858
  16   2.0000      -0.292674        -7.9641
  17   2.0000      -0.252734        -6.8772
  18   2.0000      -0.244120        -6.6429
  19   2.0000      -0.237788        -6.4705
  20   2.0000      -0.236725        -6.4416
  21   2.0000      -0.208928        -5.6852
  22   0.0000       0.312843         8.5129
  23   0.0000       0.335799         9.1375
  24   0.0000       0.354567         9.6483
  25   0.0000       0.357281         9.7221
  26   0.0000       0.403958        10.9922

MULLIKEN ATOMIC CHARGES
-----------------------
   0 C :   -0.295855
   1 C :   -0.624234
   2 H :    0.190183
   3 F :   -0.709029
   4 Cl:   -0.531530
   5 H :    0.269281
   6 H :    0.258092
   7 H :    0.257512
   8 H :    0.185580
Sum of atomic charges:   -1.0000000

LOEWDIN ATOMIC CHARGES
----------------------
   0 C :   -0.120013
   1 C :   -0.355943
   2 H :    0.094458
   3 F :   -0.663483
   4 Cl:   -0.412389
   5 H :    0.116423
   6 H :    0.114448
   7 H :    0.128189
   8 H :    0.098310

  Mayer bond orders larger than 0.100000
B(  0-C ,  1-C ) :   0.9022 B(  0-C ,  3-F ) :   0.2655 B(  0-C ,  4-Cl) :   0.5507
B(  0-C ,  5-H ) :   0.8741 B(  0-C ,  6-H ) :   0.8792 B(  1-C ,  2-H ) :   0.9069
B(  1-C ,  7-H ) :   0.8565 B(  1-C ,  8-H ) :   0.9181

MP2 TOTAL ENERGY:     -638.348587055 Eh
FINAL SINGLE POINT ENERGY      -638.348587055190

DIPOLE MOMENT
-------------
                                X             Y             Z
Electronic contribution:     -2.46389      -4.56254      -0.68084
Nuclear contribution   :      3.34545       3.83017       0.58452
                        -----------------------------------------
Total Dipole Moment    :      0.88156      -0.73237      -0.09633
                        -----------------------------------------
Magnitude (a.u.)       :      1.15013
Magnitude (Debye)      :      2.92339

Rotational constants in cm-1:     0.414594     0.072757     0.063411
Rotational constants in MHz : 12429.218362  2181.214508  1901.023559

                             ****ORCA TERMINATED NORMALLY****
TOTAL RUN TIME: 0 days 0 hours 0 minutes 12 seconds 784 msec
