                         Program Version 5.0.3 -  RELEASE  -
|  1> ! RI-MP2 6-311G(d) autoaux nofrozencore tightscf engrad
|  2> %pal nprocs 1 end
|  3> *xyz -1 1
|  4> C   0.0945436110706428 -0.04868643454782148 0.062324560808428256
|  5> C   1.5932725333592876 0.13788026355780547 0.040059822055519854
|  6> H   2.074400114208224 -0.7610716980877281 0.42288701789919536
|  7> F   -0.5328090674088087 1.2169918482976854 -0.011362311435465683
|  8> Cl   0.8363546878612698 -3.2723928312841957 -0.41126128654730454
|  9> H   -0.25606806732247367 -0.6487624427236409 -0.7722318650849049
| 10> H   -0.2365880167115565 -0.5227940258919963 0.9858788106738682
| 11> H   1.8561731031582416 1.0021232964581381 0.656860370609409
| 12> H   1.9566126117851739 0.3059776142217539 -0.9757426689787456
| 13> *
| 14>
| 15>                          ****END OF INPUT****

CARTESIAN COORDINATES (ANGSTROEM)
---------------------------------
  C      0.094544   -0.048686    0.062325
  C      1.593273    0.137880    0.040060
  H      2.074400   -0.761072    0.422887
  F     -0.532809    1.216992   -0.011362
  Cl     0.836355   -3.272393   -0.411261
  H     -0.256068   -0.648762   -0.772232
  H     -0.236588   -0.522794    0.985879
  H      1.856173    1.002123    0.656860
  H      1.956613    0.305978   -0.975743

 Total Charge           Charge          ....   -1
 Multiplicity           Mult            ....    1
 Number of Electrons    NEL             ....   44
 Basis Dimension        Dim             ....   95

ORBITAL ENERGIES
----------------

  NO   OCC          E(Eh)            E(eV)
   0   2.0000    -104.513397     -2843.9541
   1   2.0000     -26.120346      -710.7708
   2   2.0000     -11.154623      -303.5327
   3   2.0000     -11.081329      -301.5383
   4   2.0000     -10.238975      -278.6167
   5   2.0000      -7.705864      -209.6872
   6   2.0000      -7.705838      -209.6865
   7   2.0000      -7.705821      -209.6860
   8   2.0000      -1.431875       -38.9633
   9   2.0000      -0.887583       -24.1524
  10   2.0000      -0.748557       -20.3693
  11   2.0000      -0.715615       -19.4729
  12   2.0000      -0.553164       -15.0524
  13   2.0000      -0.543767       -14.7966
  14   2.0000      -0.504194       -13.7198
  15   2.0000      -0.438177       -11.9234
  16   2.0000      -0.406007       -11.0480
  17   2.0000      -0.365498        -9.9457
  18   2.0000      -0.349969        -9.5231
  19   2.0000      -0.166208        -4.5227
  20   2.0000      -0.165027        -4.4906
  21   2.0000      -0.164868        -4.4863
  22   0.0000       0.300859         8.1868
  23   0.0000       0.334793         9.1102
  24   0.0000       0.338061         9.1991
  25   0.0000       0.384938        10.4747
  26   0.0000       0.406061        11.0495

MULLIKEN ATOMIC CHARGES
-----------------------
   0 C :   -0.077105
   1 C :   -0.682325
   2 H :    0.269068
   3 F :   -0.347294
   4 Cl:   -0.960772
   5 H :    0.237091
   6 H :    0.192105
   7 H :    0.173657
   8 H :    0.195574
Sum of atomic charges:   -1.0000000

LOEWDIN ATOMIC CHARGES
----------------------
   0 C :   -0.104854
   1 C :   -0.346076
   2 H :    0.135046
   3 F :   -0.148245
   4 Cl:   -0.935246
   5 H :    0.107818
   6 H :    0.094533
   7 H :    0.091880
   8 H :    0.105145

  Mayer bond orders larger than 0.100000
B(  0-C ,  1-C ) :   0.9334 B(  0-C ,  3-F ) :   0.7996 B(  0-C ,  5-H ) :   0.8872
B(  0-C ,  6-H ) :   0.9075 B(  1-C ,  2-H ) :   0.8723 B(  1-C ,  7-H ) :   0.9094
B(  1-C ,  8-H ) :   0.9149

MP2 TOTAL ENERGY:     -638.419283708 Eh
FINAL SINGLE POINT ENERGY      -638.419283707712

DIPOLE MOMENT
-------------
                                X             Y             Z
Electronic contribution:     -3.27400      -2.46471      -0.80129
Nuclear contribution   :      3.12005       5.36019       1.24473
                        -----------------------------------------
Total Dipole Moment    :     -0.15395       2.89548       0.44344
                        -----------------------------------------
Magnitude (a.u.)       :      2.93328
Magnitude (Debye)      :      7.45581

Rotational constants in cm-1:     0.417249     0.051658     0.046850
Rotational constants in MHz : 12508.814074  1548.670928  1404.523498

                             ****ORCA TERMINATED NORMALLY****
TOTAL RUN TIME: 0 days 0 hours 0 minutes 11 seconds 506 msec
