                         Program Version 5.0.3 -  RELEASE  -
|  1> ! RI-MP2 6-311G(d) autoaux nofrozencore tightscf engrad
|  2> %pal nprocs 1 end
|  3> *xyz -1 1
|  4> C   0.35177408112020103 -0.8094027109098625 -0.03971151317663561
|  5> C   1.6503285558713552 -0.05175287311186916 0.021763094001467784
|  6> H   2.3465283076318717 -0.4906995564124823 0.7428275735109758
|  7> F   -0.5545357458657443 1.5777720225092469 0.2382457732971397
|  8> Cl   0.6306208448467008 -2.5888108328901023 -0.4249282061588202
|  9> H   -0.3000876382386315 -0.3888730817447657 -0.7924828756695989
| 10> H   -0.17694880669056956 -0.7681784952789488 0.9042337865968053
| 11> H   1.3034431499149448 0.9487129447194229 0.30565825226630344
| 12> H   2.1347687614098696 -0.019501826880638506 -0.9581934346676377
| 13> *
| 14>
| 15>                          ****END OF INPUT****

CARTESIAN COORDINATES (ANGSTROEM)
---------------------------------
  C      0.351774   -0.809403   -0.039712
  C      1.650329   -0.051753    0.021763
  H      2.346528   -0.490700    0.742828
  F     -0.554536    1.577772    0.238246
  Cl     0.630621   -2.588811   -0.424928
  H     -0.300088   -0.388873   -0.792483
  H     -0.176949   -0.768178    0.904234
  H      1.303443    0.948713    0.305658
  H      2.134769   -0.019502   -0.958193

 Total Charge           Charge          ....   -1
 Multiplicity           Mult            ....    1
 Number of Electrons    NEL             ....   44
 Basis Dimension        Dim             ....   95

ORBITAL ENERGIES
----------------

  NO   OCC          E(Eh)            E(eV)
   0   2.0000    -104.662856     -2848.0211
   1   2.0000     -25.813471      -702.4203
   2   2.0000     -11.117669      -302.5272
   3   2.0000     -11.050884      -300.7098
   4   2.0000     -10.389835      -282.7218
   5   2.0000      -7.857840      -213.8227
   6   2.0000      -7.855628      -213.7625
   7   2.0000      -7.855608      -213.7620
   8   2.0000      -1.088271       -29.6134
   9   2.0000      -0.965594       -26.2751
  10   2.0000      -0.832496       -22.6534
  11   2.0000      -0.664733       -18.0883
  12   2.0000      -0.473742       -12.8912
  13   2.0000      -0.434171       -11.8144
  14   2.0000      -0.390179       -10.6173
  15   2.0000      -0.356383        -9.6977
  16   2.0000      -0.333338        -9.0706
  17   2.0000      -0.279814        -7.6141
  18   2.0000      -0.278926        -7.5900
  19   2.0000      -0.195853        -5.3294
  20   2.0000      -0.191747        -5.2177
  21   2.0000      -0.189284        -5.1507
  22   0.0000       0.317289         8.6339
  23   0.0000       0.343026         9.3342
  24   0.0000       0.355357         9.6698
  25   0.0000       0.363593         9.8939
  26   0.0000       0.411017        11.1843

MULLIKEN ATOMIC CHARGES
-----------------------
   0 C :   -0.420082
   1 C :   -0.661283
   2 H :    0.159847
   3 F :   -0.795353
   4 Cl:   -0.266879
   5 H :    0.269373
   6 H :    0.239873
   7 H :    0.306086
   8 H :    0.168417
Sum of atomic charges:   -1.0000000

LOEWDIN ATOMIC CHARGES
----------------------
   0 C :   -0.285442
   1 C :   -0.374816
   2 H :    0.081512
   3 F :   -0.802441
   4 Cl:   -0.099603
   5 H :    0.123976
   6 H :    0.112508
   7 H :    0.155127
   8 H :    0.089179

  Mayer bond orders larger than 0.100000
B(  0-C ,  1-C ) :   0.9126 B(  0-C ,  4-Cl) :   0.7813 B(  0-C ,  5-H ) :   0.8493
B(  0-C ,  6-H ) :   0.8792 B(  1-C ,  2-H ) :   0.9141 B(  1-C ,  7-H ) :   0.7876
B(  1-C ,  8-H ) :   0.9195 B(  3-F ,  7-H ) :   0.1539

MP2 TOTAL ENERGY:     -638.358203572 Eh
FINAL SINGLE POINT ENERGY      -638.358203571667

DIPOLE MOMENT
-------------
                                X             Y             Z
Electronic contribution:     -2.28797      -5.86711      -1.15217
Nuclear contribution   :      3.45143       3.45233       0.84516
                        -----------------------------------------
Total Dipole Moment    :      1.16346      -2.41478      -0.30701
                        -----------------------------------------
Magnitude (a.u.)       :      2.69797
Magnitude (Debye)      :      6.85770

Rotational constants in cm-1:     0.424266     0.067543     0.059599
Rotational constants in MHz : 12719.176537  2024.893345  1786.737718

                             ****ORCA TERMINATED NORMALLY****
TOTAL RUN TIME: 0 days 0 hours 0 minutes 12 seconds 655 msec
