                         Program Version 5.0.3 -  RELEASE  -
|  1> ! RI-MP2 6-311G(d) autoaux nofrozencore tightscf engrad
|  2> %pal nprocs 1 end
|  3> *xyz -1 1
|  4> C   0.11037347714400159 -0.14343141328632578 0.0471983556672642
|  5> C   1.6155334504727374 0.07651726462019609 0.03303354482047814
|  6> H   2.1812255941870147 -0.5962376130896229 0.6770092966373616
|  7> F   -0.4939506458942996 1.1537178258503547 0.23508077115738546
|  8> Cl   0.7503188156441114 -2.91024227276923 -0.40832999572695833
|  9> H   -0.3014182182221977 -0.5105698085266994 -0.8854012518697407
| 10> H   -0.2346029196377345 -0.7532289010555551 0.876155554132571
| 11> H   1.7116496074187946 1.1013141340917239 0.387605207523543
| 12> H   2.0467623488875706 -0.008573625834841614 -0.9649390323419045
| 13> *
| 14>
| 15>                          ****END OF INPUT****

CARTESIAN COORDINATES (ANGSTROEM)
---------------------------------
  C      0.110373   -0.143431    0.047198
  C      1.615533    0.076517    0.033034
  H      2.181226   -0.596238    0.677009
  F     -0.493951    1.153718    0.235081
  Cl     0.750319   -2.910242   -0.408330
  H     -0.301418   -0.510570   -0.885401
  H     -0.234603   -0.753229    0.876156
  H      1.711650    1.101314    0.387605
  H      2.046762   -0.008574   -0.964939

 Total Charge           Charge          ....   -1
 Multiplicity           Mult            ....    1
 Number of Electrons    NEL             ....   44
 Basis Dimension        Dim             ....   95

ORBITAL ENERGIES
----------------

  NO   OCC          E(Eh)            E(eV)
   0   2.0000    -104.512318     -2843.9247
   1   2.0000     -26.096074      -710.1103
   2   2.0000     -11.141250      -303.1688
   3   2.0000     -11.070635      -301.2473
   4   2.0000     -10.238671      -278.6084
   5   2.0000      -7.705580      -209.6795
   6   2.0000      -7.705499      -209.6773
   7   2.0000      -7.705478      -209.6767
   8   2.0000      -1.404217       -38.2107
   9   2.0000      -0.872176       -23.7331
  10   2.0000      -0.752530       -20.4774
  11   2.0000      -0.703048       -19.1309
  12   2.0000      -0.532307       -14.4848
  13   2.0000      -0.523533       -14.2461
  14   2.0000      -0.477328       -12.9888
  15   2.0000      -0.423077       -11.5125
  16   2.0000      -0.392868       -10.6905
  17   2.0000      -0.354410        -9.6440
  18   2.0000      -0.339319        -9.2333
  19   2.0000      -0.167392        -4.5550
  20   2.0000      -0.167163        -4.5487
  21   2.0000      -0.166692        -4.5359
  22   0.0000       0.313015         8.5176
  23   0.0000       0.341430         9.2908
  24   0.0000       0.356290         9.6951
  25   0.0000       0.376100        10.2342
  26   0.0000       0.412142        11.2150

MULLIKEN ATOMIC CHARGES
-----------------------
   0 C :   -0.083702
   1 C :   -0.676530
   2 H :    0.238479
   3 F :   -0.381524
   4 Cl:   -0.939536
   5 H :    0.229553
   6 H :    0.222751
   7 H :    0.179489
   8 H :    0.211020
Sum of atomic charges:   -1.0000000

LOEWDIN ATOMIC CHARGES
----------------------
   0 C :   -0.107336
   1 C :   -0.347213
   2 H :    0.117987
   3 F :   -0.184086
   4 Cl:   -0.881740
   5 H :    0.100901
   6 H :    0.099873
   7 H :    0.092509
   8 H :    0.109106

  Mayer bond orders larger than 0.100000
B(  0-C ,  1-C ) :   0.9084 B(  0-C ,  3-F ) :   0.7600 B(  0-C ,  5-H ) :   0.9025
B(  0-C ,  6-H ) :   0.9039 B(  1-C ,  2-H ) :   0.8990 B(  1-C ,  7-H ) :   0.9036
B(  1-C ,  8-H ) :   0.9142

MP2 TOTAL ENERGY:     -638.409298380 Eh
FINAL SINGLE POINT ENERGY      -638.409298379939

DIPOLE MOMENT
-------------
                                X             Y             Z
Electronic contribution:     -3.30026      -2.13747      -0.28807
Nuclear contribution   :      3.26157       4.51983       0.67483
                        -----------------------------------------
Total Dipole Moment    :     -0.03869       2.38236       0.38677
                        -----------------------------------------
Magnitude (a.u.)       :      2.41386
Magnitude (Debye)      :      6.13555

Rotational constants in cm-1:     0.421713     0.063827     0.056608
Rotational constants in MHz : 12642.647101  1913.489758  1697.053059

                             ****ORCA TERMINATED NORMALLY****
TOTAL RUN TIME: 0 days 0 hours 0 minutes 12 seconds 109 msec
